file 6127 1424789279                                            
version 2
run Stationary-TEST-0-20150224-11:44:23-81556
attr configname Stationary-TEST
attr datetime 20150224-11:44:23
attr experiment Stationary-TEST
attr inifile omnetpp.ini
attr iterationvars ""
attr iterationvars2 $repetition=0
attr measurement ""
attr network Static
attr processid 81556
attr repetition 0
attr replication #0
attr resultdir results
attr runnumber 0
attr seedset 0

vector 8  Static.modulo.wlan[0].queue  queueLength:vector  ETV
attr interpolationmode  sample-hold
attr title  "queue length, vector"
vector 27  Static.modulo1.wlan[0].queue  queueLength:vector  ETV
attr interpolationmode  sample-hold
attr title  "queue length, vector"
vector 41  Static.modulo2.wlan[0].queue  queueLength:vector  ETV
attr interpolationmode  sample-hold
attr title  "queue length, vector"
vector 55  Static.modulo3.wlan[0].queue  queueLength:vector  ETV
attr interpolationmode  sample-hold
attr title  "queue length, vector"
vector 17  Static.modulo1.pingApp[0]  pingTxSeq:vector  ETV
attr interpolationmode  none
attr title  "ping tx seq, vector"
vector 24  Static.modulo1.wlan[0].queue  rcvdPk:vector(packetBytes)  ETV
attr interpolationmode  none
attr title  "received packets, vector(packetBytes)"
vector 26  Static.modulo1.wlan[0].queue  queueingTime:vector  ETV
attr interpolationmode  none
attr title  "queueing time, vector"
vector 30  Static.modulo1.wlan[0].mac  rcvdPkFromHL:vector(packetBytes)  ETV
attr interpolationmode  none
attr source  packetReceivedFromUpper
attr title  "packets received from higher layer, vector(packetBytes)"
vector 29  Static.modulo1.wlan[0].mac  sentDownPk:vector(packetBytes)  ETV
attr interpolationmode  none
attr source  packetSentToLower
attr title  "packets sent to lower layer, vector(packetBytes)"
vector 12  Static.modulo.wlan[0].mac  rcvdPkFromLL:vector(packetBytes)  ETV
attr interpolationmode  none
attr source  packetReceivedFromLower
attr title  "packets received from lower layer, vector(packetBytes)"
vector 9  Static.modulo.wlan[0].mac  passedUpPk:vector(packetBytes)  ETV
attr interpolationmode  none
attr source  packetSentToUpper
attr title  "packets passed to higher layer, vector(packetBytes)"
vector 45  Static.modulo2.wlan[0].mac  rcvdPkFromLL:vector(packetBytes)  ETV
attr interpolationmode  none
attr source  packetReceivedFromLower
attr title  "packets received from lower layer, vector(packetBytes)"
vector 42  Static.modulo2.wlan[0].mac  passedUpPk:vector(packetBytes)  ETV
attr interpolationmode  none
attr source  packetSentToUpper
attr title  "packets passed to higher layer, vector(packetBytes)"
vector 33  Static.modulo2.networkLayer.arp  sentReq:vector  ETV
attr title  "ARP request sent, vector"
vector 38  Static.modulo2.wlan[0].queue  rcvdPk:vector(packetBytes)  ETV
attr interpolationmode  none
attr title  "received packets, vector(packetBytes)"
vector 40  Static.modulo2.wlan[0].queue  queueingTime:vector  ETV
attr interpolationmode  none
attr title  "queueing time, vector"
vector 44  Static.modulo2.wlan[0].mac  rcvdPkFromHL:vector(packetBytes)  ETV
attr interpolationmode  none
attr source  packetReceivedFromUpper
attr title  "packets received from higher layer, vector(packetBytes)"
vector 43  Static.modulo2.wlan[0].mac  sentDownPk:vector(packetBytes)  ETV
attr interpolationmode  none
attr source  packetSentToLower
attr title  "packets sent to lower layer, vector(packetBytes)"
vector 31  Static.modulo1.wlan[0].mac  rcvdPkFromLL:vector(packetBytes)  ETV
attr interpolationmode  none
attr source  packetReceivedFromLower
attr title  "packets received from lower layer, vector(packetBytes)"
vector 28  Static.modulo1.wlan[0].mac  passedUpPk:vector(packetBytes)  ETV
attr interpolationmode  none
attr source  packetSentToUpper
attr title  "packets passed to higher layer, vector(packetBytes)"
vector 20  Static.modulo1.networkLayer.arp  sentReply:vector  ETV
attr title  "ARP replies sent, vector"
vector 59  Static.modulo3.wlan[0].mac  rcvdPkFromLL:vector(packetBytes)  ETV
attr interpolationmode  none
attr source  packetReceivedFromLower
attr title  "packets received from lower layer, vector(packetBytes)"
vector 56  Static.modulo3.wlan[0].mac  passedUpPk:vector(packetBytes)  ETV
attr interpolationmode  none
attr source  packetSentToUpper
attr title  "packets passed to higher layer, vector(packetBytes)"
vector 13  Static.modulo.wlan[0].mac  droppedPkNotForUs:vector(packetBytes)  ETV
attr interpolationmode  none
attr source  dropPkNotForUs
attr title  "packets dropped/not for us, vector(packetBytes)"
vector 60  Static.modulo3.wlan[0].mac  droppedPkNotForUs:vector(packetBytes)  ETV
attr interpolationmode  none
attr source  dropPkNotForUs
attr title  "packets dropped/not for us, vector(packetBytes)"
8	4807 9 0 0 0 0 1 0 0 0 0
9	4816 48 67 84 3.198338455412 3.198490595088 2 20 28 48 1184
12	4864 127 67 130 3.198338455412 3.199107580556 5 30 86 222 12084
13	4991 77 103 130 3.198643017984 3.199107580556 3 30 86 154 9740
17	5068 24 56 56 3.195254009217 3.195254009217 1 0 0 0 0
20	5092 23 90 90 3.19849079487 3.19849079487 1 1 1 1 1
24	5115 75 60 121 3.198218232298 3.198763357442 3 20 76 124 6960
26	5190 72 60 121 3.198218232298 3.198763357442 3 0 0 0 0
27	5262 10 0 0 0 0 1 0 0 0 0
28	5272 50 88 118 3.19849079487 3.198763357442 2 20 28 48 1184
29	5322 75 61 122 3.198218232298 3.198763357442 3 30 86 154 9740
30	5397 75 61 122 3.198218232298 3.198763357442 3 20 76 124 6960
31	5472 50 88 118 3.19849079487 3.198763357442 2 30 38 68 2344
33	5522 24 74 74 3.198338513584 3.198338513584 1 1 1 1 1
38	5546 77 76 136 3.198338513584 3.199107638728 3 20 76 124 6960
40	5623 74 76 136 3.198338513584 3.199107638728 3 0 0 0 0
41	5697 10 0 0 0 0 1 0 0 0 0
42	5707 77 71 132 3.198338513584 3.199107638728 3 20 76 124 6960
43	5784 77 77 137 3.198338513584 3.199107638728 3 30 86 154 9740
44	5861 77 77 137 3.198338513584 3.199107638728 3 20 76 124 6960
45	5938 77 71 132 3.198338513584 3.199107638728 3 30 86 154 9740
55	6015 10 0 0 0 0 1 0 0 0 0
56	6025 25 96 96 3.198490803176 3.198490803176 1 28 28 28 784
59	6050 51 96 125 3.198490803176 3.198763365748 2 30 38 68 2344
60	6101 26 125 125 3.198763365748 3.198763365748 1 30 30 30 900
